4
Properties=species:S:1:pos:R:3:forces:R:3 energy=-18604.10673788755 pbc="F F F"
Al       2.04223761      -4.80757615       0.38416179       0.06072596       0.24302722       0.00862955
F        1.63850328      -6.42042658       0.32674475      -0.06083087      -0.24286920      -0.00865073
Al      -1.85564319       7.83662534      -0.33880712       0.02713260       0.11851650       0.00677738
F       -2.23168315       6.21379886      -0.43255165      -0.02702770      -0.11867447      -0.00675619
