4
Properties=species:S:1:pos:R:3:forces:R:3 energy=-18604.106816599557 pbc="F F F"
Al       0.00000000      -7.00000000       0.00000000      -0.00000000      -0.00026837      -0.11451982
F        0.00000000      -7.00000000       1.66873470       0.00000000       0.00037363       0.11444336
Al       0.00000000       7.00000000       1.66873470       0.00000000       0.00026837       0.11451982
F        0.00000000       7.00000000       0.00000000      -0.00000000      -0.00037363      -0.11444336
4
Properties=species:S:1:pos:R:3:forces:R:3 energy=-18603.994372520734 pbc="F F F"
Al       0.02106203      -7.01021511      -0.00902949      -0.00612982       0.02104397       0.70891007
F        0.00633130      -6.95914421       1.69390711       0.00613074      -0.02095408      -0.70897836
Al      -0.01033483       7.01484437       1.64005790      -0.05236690       0.02875136       2.74441922
F        0.01996813       6.99836735       0.05202092       0.05236597      -0.02884130      -2.74435093
4
Properties=species:S:1:pos:R:3:forces:R:3 energy=-18603.822567550687 pbc="F F F"
Al       0.01871962      -7.02335422      -0.01871500      -0.00596074       0.05618442       1.13939669
F        0.00969925      -6.93808521       1.70455463       0.00596162      -0.05610343      -1.13946179
Al      -0.01263818       7.01838489       1.62383199      -0.10813305       0.08309991       4.66404772
F        0.02319808       6.99094026       0.07817282       0.10813212      -0.08318090      -4.66398262
4
Properties=species:S:1:pos:R:3:forces:R:3 energy=-18603.55471054389 pbc="F F F"
Al       0.01352043      -7.05208554      -0.03464357       0.00365493       0.15972224       1.75260417
F        0.01717438      -6.89197722       1.72030529      -0.00365390      -0.15964228      -1.75266752
Al      -0.01829959       7.02669397       1.61065019      -0.22294104       0.23862513       6.79429863
F        0.03114718       6.97383595       0.10376472       0.22294001      -0.23870509      -6.79423528
4
Properties=species:S:1:pos:R:3:forces:R:3 energy=-18603.823044421468 pbc="F F F"
Al       0.00957721      -7.07313732      -0.03750886       0.01403483       0.22719359       1.85673247
F        0.02284410      -6.85803530       1.71913561      -0.01403380      -0.22707640      -1.85679603
Al      -0.02374695       7.03423763       1.63515391      -0.15218710       0.18310447       3.79753061
F        0.03881397       6.95907828       0.07420348       0.15218608      -0.18322166      -3.79746705
4
Properties=species:S:1:pos:R:3:forces:R:3 energy=-18603.96111966265 pbc="F F F"
Al       0.00768869      -7.08291766      -0.03520049       0.01825962       0.24557662       1.78482334
F        0.02555994      -6.84218299       1.71331549      -0.01825874      -0.24543079      -1.78488545
Al      -0.02673235       7.03830086       1.65595699      -0.07897139       0.09868280       1.82180712
F        0.04302009       6.95134541       0.04720072       0.07897051      -0.09882864      -1.82174500
4
Properties=species:S:1:pos:R:3:forces:R:3 energy=-18604.025474350157 pbc="F F F"
Al       0.00587467      -7.09209891      -0.03043162       0.02090713       0.24795983       1.62474402
F        0.02816909      -6.82723185       1.70406644      -0.02090646      -0.24778443      -1.62480342
Al      -0.02975223       7.04239858       1.67879557      -0.00827967       0.01081062       0.17912646
F        0.04727604       6.94361390       0.01724166       0.00827906      -0.01098602      -0.17906701
4
Properties=species:S:1:pos:R:3:forces:R:3 energy=-18604.022188103747 pbc="F F F"
Al       0.00420508      -7.10035230      -0.02371629       0.02123716       0.23041616       1.38021158
F        0.03057103      -6.81371981       1.69221052      -0.02123680      -0.23021567      -1.38026737
Al      -0.03259133       7.04625042       1.70042836       0.04797031      -0.06270736      -0.97836432
F        0.05127734       6.93635294      -0.01116245      -0.04797062       0.06250686       0.97842017
4
Properties=species:S:1:pos:R:3:forces:R:3 energy=-18603.93225290091 pbc="F F F"
Al       0.00136940      -7.11389723      -0.00680103       0.01318729       0.12729353       0.66009767
F        0.03465208      -6.79135187       1.66413348      -0.01318750      -0.12706676      -0.66014637
Al      -0.03730382       7.05265348       1.73323987       0.11642748      -0.15706284      -2.18423519
F        0.05791620       6.92412788      -0.05370736      -0.11642722       0.15683612       2.18428394
4
Properties=species:S:1:pos:R:3:forces:R:3 energy=-18603.801000753276 pbc="F F F"
Al      -0.00178000      -7.12854449       0.01655527      -0.01525898      -0.13520003      -0.60138493
F        0.03918613      -6.76698323       1.62634772       0.01525821       0.13542562       0.60134287
Al      -0.04192892       7.05894388       1.75676842       0.15875874      -0.21986034      -2.74489467
F        0.06442348       6.91162766      -0.08250748      -0.15875797       0.21963476       2.74493673
4
Properties=species:S:1:pos:R:3:forces:R:3 energy=-18603.67442710699 pbc="F F F"
Al      -0.00560086      -7.14673823       0.04020887      -0.07040020      -0.57424483      -2.16742604
F        0.04468478      -6.73693545       1.58731070       0.07039892       0.57445206       2.16739035
Al      -0.04637642       7.06496730       1.76711218       0.18369670      -0.26066627      -2.91676851
F        0.07066757       6.89886417      -0.09175352      -0.18369541       0.26045904       2.91680419
4
Properties=species:S:1:pos:R:3:forces:R:3 energy=-18604.07848905872 pbc="F F F"
Al      -0.02751298      -7.26498627       0.02849768       0.05213102       0.35921019       0.77930158
F        0.07612752      -6.55015606       1.57958684      -0.05213411      -0.35903211      -0.77929778
Al      -0.05721320       7.07879398       1.68046561      -0.06547299       0.09999026       0.74487410
F        0.08573484       6.86038404       0.05565807       0.06547603      -0.10016834      -0.74487790
4
Properties=species:S:1:pos:R:3:forces:R:3 energy=-18603.811795070018 pbc="F F F"
Al      -0.05070911      -7.37436948       0.14948525      -0.26871959      -1.69704103      -2.03909867
F        0.10962978      -6.36204635       1.36550430       0.26870812       1.69721659       2.03919637
Al      -0.09971554       7.14018205       1.74943921       0.32439817      -0.52909738      -2.31327429
F        0.14553756       6.74043703      -0.00004231      -0.32438670       0.52892183       2.31317664
4
Properties=species:S:1:pos:R:3:forces:R:3 energy=-18603.93251225878 pbc="F F F"
Al      -0.09166307      -7.58042568       0.27173019       0.32437420       1.93861666       1.07486416
F        0.16854341      -6.02493417       1.13470933      -0.32440763      -1.93854277      -1.07463965
Al      -0.13382686       7.18487381       1.67897155      -0.11441842       0.19231401       0.53319279
F        0.19323165       6.63249469       0.15721853       0.11445184      -0.19238790      -0.53341730
4
Properties=species:S:1:pos:R:3:forces:R:3 energy=-18604.043710376645 pbc="F F F"
Al      -0.09400794      -7.56345787       0.47824998      -0.35764413      -2.07913949      -0.42899497
F        0.17244230      -6.01475428       0.79742826       0.35761245       2.07909151       0.42916549
Al      -0.16495956       7.22668311       1.67478219      -0.01951740       0.03268284       0.07168504
F        0.23687762       6.53883953       0.20714987       0.01954908      -0.03263486      -0.07185555
4
Properties=species:S:1:pos:R:3:forces:R:3 energy=-18603.79107760173 pbc="F F F"
Al      -0.11570992      -7.65944466       0.64993737       0.47986842       2.72721093      -0.21361009
F        0.20384380      -5.84289485       0.50803311      -0.47994956      -2.72752568       0.21389770
Al      -0.20035526       7.27569986       1.65977432       0.13808342      -0.24033363      -0.39264805
F        0.28656627       6.43368696       0.27402870      -0.13800228       0.24064833       0.39236045
4
Properties=species:S:1:pos:R:3:forces:R:3 energy=-18603.86211912139 pbc="F F F"
Al      -0.11164996      -7.62862624       0.69517962       0.38816415       2.19361185      -0.33114042
F        0.19823620      -5.87682542       0.43116561      -0.38824813      -2.19399510       0.33140854
Al      -0.21495768       7.29748572       1.67177972       0.46246961      -0.80273513      -1.24180111
F        0.30714628       6.39290892       0.26959307      -0.46238563       0.80311838       1.24153300
4
Properties=species:S:1:pos:R:3:forces:R:3 energy=-18603.893286520593 pbc="F F F"
Al      -0.08714068      -7.46358696       0.84220534      -0.68172039      -3.76030715       1.79610436
F        0.16394392      -6.07875787       0.18072019       0.68168404       3.76009205      -1.79604764
Al      -0.23100952       7.31354878       1.62781298       0.09755846      -0.17046420      -0.21839127
F        0.32942731       6.33763976       0.37367410      -0.09752210       0.17067935       0.21833455
4
Properties=species:S:1:pos:R:3:forces:R:3 energy=-18604.06240675684 pbc="F F F"
Al      -0.04678295      -7.18086576       1.11741322      -0.12500669      -0.62685881       1.15245903
F        0.10776941      -6.40623330      -0.30540016       0.12498771       0.62670721      -1.15255287
Al      -0.27217494       7.35761043       1.53873147      -0.47932442       0.84112052       0.68579873
F        0.38674889       6.20101808       0.59545771       0.47934340      -0.84096898      -0.68570488
4
Properties=species:S:1:pos:R:3:forces:R:3 energy=-18603.987165747134 pbc="F F F"
Al       0.05774228      -6.54120526       1.06354648       0.17452855       1.19234862       2.59357526
F       -0.03897559      -7.20216534      -0.37445851      -0.17450192      -1.19222685      -2.59361110
Al      -0.32088052       7.39961653       1.39281759      -0.49117356       0.86897668       0.28162550
F        0.45421879       6.02884699       0.94824458       0.49114692      -0.86909845      -0.28158971
4
Properties=species:S:1:pos:R:3:forces:R:3 energy=-18603.918086810492 pbc="F F F"
Al       0.10576968      -6.25729755       0.93131045      -0.22175119      -1.35927262      -1.23497926
F       -0.10642601      -7.55704669      -0.24918332       0.22183624       1.35959231       1.23493827
Al      -0.35433481       7.44034541       1.32365126       0.80464119      -1.42689685      -0.20209957
F        0.50097249       5.92267935       1.10900109      -0.80472625       1.42657716       0.20214056
4
Properties=species:S:1:pos:R:3:forces:R:3 energy=-18604.058157473442 pbc="F F F"
Al       0.12759971      -6.13564946       0.68206308      -0.08922186      -0.52517491      -0.21209700
F       -0.13678753      -7.69045014       0.05398061       0.08926974       0.52532126       0.21211721
Al      -0.32839586       7.37936235       1.25512804      -0.82451032       1.46805122      -0.00207905
F        0.46349249       5.96992629       1.25713505       0.82446250      -1.46819756       0.00205879
4
Properties=species:S:1:pos:R:3:forces:R:3 energy=-18603.832731849645 pbc="F F F"
Al      -0.00048883      -6.83986965      -0.36666338      -0.03992826      -0.32726695      -1.25418987
F        0.04978395      -6.42869069       1.20779488       0.03991216       0.32714693       1.25421733
Al      -0.21764251       7.08401458       0.94105470      -1.57802147       2.90622662      -3.33611042
F        0.30154044       6.12775358       2.03876950       1.57803762      -2.90610665       3.33608296
4
Properties=species:S:1:pos:R:3:forces:R:3 energy=-18603.70857982126 pbc="F F F"
Al      -0.03238849      -7.00934523      -0.36812662       0.12965971       0.86182839       1.55482827
F        0.09565402      -6.15701493       1.17021838      -0.12972373      -0.86233886      -1.55488504
Al      -0.23263037       7.10167960       0.82045374       0.82723775      -1.53644822       2.13131952
F        0.32226006       6.07167924       2.24970163      -0.82717367       1.53695869      -2.13126275
4
Properties=species:S:1:pos:R:3:forces:R:3 energy=-18604.000629691385 pbc="F F F"
Al       0.01933642      -6.49736562       0.76191020      -0.01038988       0.09023287       2.06202839
F        0.02741489      -6.56780582      -0.84251060       0.01038546      -0.09023539      -2.06196082
Al       0.08142975       6.40273926       0.93521270       0.24618567      -0.40367115      -1.82445489
F       -0.12898885       6.74799180       2.49457122      -0.24618124       0.40367367       1.82438732
4
Properties=species:S:1:pos:R:3:forces:R:3 energy=-18604.022340927735 pbc="F F F"
Al       0.03635235      -6.39134365       0.79393447      -0.02362962      -0.22385790      -1.22341536
F        0.00349771      -6.70232391      -0.90855359       0.02362289       0.22384160       1.22350874
Al       0.09834089       6.36517368       0.95160987       0.26437226      -0.44105005      -1.61855507
F       -0.15325490       6.78528812       2.49184607      -0.26436553       0.44106635       1.61846169
4
Properties=species:S:1:pos:R:3:forces:R:3 energy=-18603.994187800323 pbc="F F F"
Al       0.04395237      -6.34472488       0.79660858      -0.05377473      -0.43808675      -1.80581274
F       -0.00718059      -6.76108847      -0.92188326       0.05376475       0.43806608       1.80594963
Al       0.11033215       6.34085643       0.93270218      -0.05697339       0.09622627       0.32358169
F       -0.17040015       6.81238006       2.52823068       0.05698336      -0.09620555      -0.32371857
4
Properties=species:S:1:pos:R:3:forces:R:3 energy=-18603.976217077423 pbc="F F F"
Al       0.06611633      -6.21594791       0.68237192       0.06457753       0.43426661       0.91305007
F       -0.03825915      -6.91815333      -0.79270259      -0.06458473      -0.43431823      -0.91297407
Al       0.13955685       6.27745159       0.93160052      -0.38072060       0.64865811       1.76495771
F       -0.21230377       6.87660338       2.56285352       0.38072780      -0.64860648      -1.76503371
4
Properties=species:S:1:pos:R:3:forces:R:3 energy=-18604.087764271328 pbc="F F F"
Al       0.07922626      -6.13916010       0.63245599       0.09632371       0.61967746       0.97243705
F       -0.05666691      -7.01351698      -0.73933551      -0.09632726      -0.61970857      -0.97241031
Al       0.14256756       6.26506844       0.99067267       0.03993170      -0.06820469      -0.16733697
F       -0.21679054       6.88049951       2.49648276      -0.03992816       0.06823580       0.16731023
4
Properties=species:S:1:pos:R:3:forces:R:3 energy=-18603.91228851736 pbc="F F F"
Al       0.11500413      -5.92741167       0.52327592      -0.26660223      -1.62062825      -1.38860818
F       -0.10689507      -7.27631404      -0.63283042       0.26658886       1.62051991       1.38867380
Al       0.18409571       6.17365472       1.02914112      -0.31666979       0.54977286       1.00484386
F       -0.27635242       6.97239718       2.49040236       0.31668316      -0.54966451      -1.00490947
4
Properties=species:S:1:pos:R:3:forces:R:3 energy=-18604.010532410386 pbc="F F F"
Al       0.12453702      -5.87580200       0.28892344       0.40309902       2.37388492       1.04395759
F       -0.11990536      -7.31516370      -0.34410843      -0.40310658      -2.37385988      -1.04395589
Al       0.20616741       6.11811895       1.09939019      -0.12267516       0.21438482       0.31847512
F       -0.30822698       7.01682270       2.43474009       0.12268266      -0.21440986      -0.31847681
4
Properties=species:S:1:pos:R:3:forces:R:3 energy=-18603.890212464434 pbc="F F F"
Al       0.15171895      -5.72034830       0.08763489      -0.41825959      -2.40288558      -0.25983427
F       -0.15795242      -7.49954630      -0.10483558       0.41825126       2.40279327       0.25984486
Al       0.23284616       6.05332447       1.17721163      -0.00061989       0.00122205       0.00124087
F       -0.34667288       7.07245103       2.37081526       0.00062822      -0.00112969      -0.00125146
4
Properties=species:S:1:pos:R:3:forces:R:3 energy=-18604.006641465865 pbc="F F F"
Al       0.14777330      -5.74320005      -0.04034581      -0.21623205      -1.22751982       0.06485475
F       -0.15202141      -7.44564160       0.04944976       0.21621596       1.22744083      -0.06483860
Al       0.25662227       6.00108477       1.20159160      -0.50244018       0.88631851       0.91604726
F       -0.38076713       7.12519124       2.36366372       0.50245628      -0.88623953      -0.91606340
4
Properties=species:S:1:pos:R:3:forces:R:3 energy=-18604.082477498483 pbc="F F F"
Al       0.14324888      -5.76905027      -0.06757991       0.02521245       0.14319488      -0.01301271
F       -0.14552595      -7.40433469       0.08224131      -0.02522592      -0.14322156       0.01302953
Al       0.25577398       6.00037006       1.21788697      -0.33528643       0.59177425       0.59550009
F       -0.37963225       7.12161185       2.34640734       0.33529995      -0.59174751      -0.59551695
4
Properties=species:S:1:pos:R:3:forces:R:3 energy=-18603.913168247647 pbc="F F F"
Al       0.13520860      -5.81518492      -0.13527752       0.64330795       3.61576034      -0.71589257
F       -0.13393976      -7.32778524       0.16425521      -0.64331726      -3.61572948       0.71591113
Al       0.24962102       6.00591955       1.26436135       0.49908649      -0.88188624      -0.82834774
F       -0.37106120       7.10270147       2.29453468      -0.49907718       0.88185544       0.82832923
4
Properties=species:S:1:pos:R:3:forces:R:3 energy=-18604.06231716444 pbc="F F F"
Al      -0.04824819      -6.79845698      -0.68454727       0.12793990       0.79647614       0.94138054
F        0.13035069      -5.68602160       0.62936711      -0.12797358      -0.79628300      -0.94143664
Al       0.32334890       5.75834934       1.86985325       0.13843895      -0.24983247       0.02086368
F       -0.47951462       7.20898042       1.74957608      -0.13840522       0.24963933      -0.02080758
4
Properties=species:S:1:pos:R:3:forces:R:3 energy=-18604.00395845923 pbc="F F F"
Al      -0.05308399      -6.82323566      -0.67456175       0.17371074       1.07408280       1.17133689
F        0.13729529      -5.64575924       0.60867503      -0.17373686      -1.07379447      -1.17140688
Al       0.33360068       5.73743450       1.88494322      -0.46527648       0.84111440      -0.08428262
F       -0.49415100       7.23361202       1.73465593       0.46530260      -0.84140278       0.08435260
4
Properties=species:S:1:pos:R:3:forces:R:3 energy=-18604.076513698466 pbc="F F F"
Al      -0.07278495      -6.90547551      -0.48138472      -0.19499603      -1.15760782      -0.62484435
F        0.16587221      -5.48917777       0.28332682       0.19495859       1.15779211       0.62482650
Al       0.31350599       5.75521348       1.97877986       0.34183755      -0.61930454       0.14316510
F       -0.46621012       7.16857790       1.65238725      -0.34180011       0.61912025      -0.14314731
4
Properties=species:S:1:pos:R:3:forces:R:3 energy=-18603.878233167638 pbc="F F F"
Al      -0.06414843      -6.73248957       0.31822843       0.29626978       1.56262756      -1.85690190
F        0.15597691      -5.57148386      -1.06042664      -0.29624489      -1.56256929       1.85715614
Al       0.24875768       5.79624439       2.37969972      -0.25513326       0.46889726      -0.44487693
F       -0.37662482       6.94693719       1.29114331       0.25510837      -0.46895552       0.44462270
4
Properties=species:S:1:pos:R:3:forces:R:3 energy=-18604.10491731861 pbc="F F F"
Al      -0.03454221      -6.54848222       0.34582909      -0.00881647      -0.04415546       0.08659414
F        0.11439054      -5.80132139      -1.13948213       0.00883148       0.04411571      -0.08646209
Al       0.22382978       5.82691851       2.43618541      -0.04459075       0.08211107      -0.09399064
F       -0.34168260       6.87188401       1.25077935       0.04457573      -0.08207126       0.09385859
4
Properties=species:S:1:pos:R:3:forces:R:3 energy=-18604.07487941011 pbc="F F F"
Al       0.06100395      -5.93534207      -1.17394262      -0.02506605      -0.10553191       0.55065454
F       -0.01521005      -6.25551921       0.49085356       0.02507962       0.10588693      -0.55056718
Al      -0.17308362       6.36539289       2.79478849       0.20253707      -0.35119457      -0.79354590
F        0.21591983       5.69055850       1.26953573      -0.20255065       0.35083955       0.79345849
4
Properties=species:S:1:pos:R:3:forces:R:3 energy=-18603.975781329606 pbc="F F F"
Al       0.03842100      -6.05836907      -1.23499973      -0.02379772       0.00420314       2.01939687
F        0.01723887      -6.05540144       0.54547696       0.02379505      -0.00387517      -2.01917020
Al      -0.19058625       6.38753537       2.76723698      -0.02126272       0.03699108       0.07119015
F        0.24040047       5.63371697       1.34075432       0.02126534      -0.03731900      -0.07141687
4
Properties=species:S:1:pos:R:3:forces:R:3 energy=-18604.073225632434 pbc="F F F"
Al       0.02075215      -6.14997976      -1.20879408       0.01120873       0.12314289       0.85116171
F        0.04260895      -5.90661162       0.48468454      -0.01122137      -0.12293000      -0.85093550
Al      -0.20303416       6.40310534       2.74435738      -0.27257516       0.47887186       0.79772822
F        0.25780221       5.59292018       1.39682308       0.27258781      -0.47908480      -0.79795442
4
Properties=species:S:1:pos:R:3:forces:R:3 energy=-18603.999646877972 pbc="F F F"
Al      -0.02633797      -6.39668386      -1.15870954       0.13354383       0.86762268       1.47587226
F        0.11017681      -5.50884145       0.35394247      -0.13361371      -0.86772054      -1.47550870
Al      -0.23835638       6.44883546       2.70703330      -0.37087405       0.65699450       0.81470526
F        0.30727639       5.48057333       1.50944275       0.37094393      -0.65689670      -0.81506882
4
Properties=species:S:1:pos:R:3:forces:R:3 energy=-18604.101653900158 pbc="F F F"
Al      -0.08699535      -6.65099182      -0.58135771      -0.06524756      -0.37494133       0.01121047
F        0.19799981      -5.01791125      -0.62935197       0.06510995       0.37428791      -0.01137657
Al      -0.31985061       6.54477263       2.56969712       0.04215499      -0.07695035      -0.04041780
F        0.42133715       5.21456139       1.86782682      -0.04201738       0.07760382       0.04058389
4
Properties=species:S:1:pos:R:3:forces:R:3 energy=-18604.089178976374 pbc="F F F"
Al       0.15117332      -5.14523954      -0.69427412      -0.09654611      -0.55545849      -0.07722365
F       -0.13691316      -6.80197740      -0.92474931       0.09659003       0.55557342       0.07733925
Al      -0.27774038       6.32196049       2.05700995      -0.29986871       0.54071245      -0.46884532
F        0.35819794       5.17659553       3.05170655       0.29982474      -0.54082737       0.46872973
4
Properties=species:S:1:pos:R:3:forces:R:3 energy=-18604.035460930245 pbc="F F F"
Al      -0.04095711      -6.01352511      -0.46800483       0.13828407       0.72591334      -1.08890644
F        0.14138523      -5.05544360      -1.90304468      -0.13832001      -0.72587529       1.08912992
Al       0.18937249       5.26854053       2.17236912      -0.24969543       0.44534667       0.68535454
F       -0.31063061       6.15926855       3.54482108       0.24973142      -0.44538473      -0.68557797
4
Properties=species:S:1:pos:R:3:forces:R:3 energy=-18604.094813210777 pbc="F F F"
Al      -0.02160171      -5.89380491      -0.45247154      -0.04409180      -0.22392912       0.48643841
F        0.11408037      -5.20616967      -1.94962239       0.04407550       0.22391929      -0.48635536
Al       0.19624067       5.24772365       2.22928826       0.25307129      -0.45114734      -0.61653182
F       -0.32056847       6.16953210       3.48850181      -0.25305493       0.45115716       0.61644877
4
Properties=species:S:1:pos:R:3:forces:R:3 energy=-18604.09111098617 pbc="F F F"
Al       0.00626627      -5.71860094      -0.39570131       0.02478194       0.10567991      -0.60539338
F        0.07478381      -5.42520065      -2.06808387      -0.02479048      -0.10571863       0.60546933
Al       0.22477897       5.18360009       2.27598146      -0.10824242       0.19352860       0.21861387
F       -0.36138014       6.23080665       3.46002450       0.10825096      -0.19348993      -0.21868982
4
Properties=species:S:1:pos:R:3:forces:R:3 energy=-18604.09707212513 pbc="F F F"
Al       0.10802340      -5.10377705      -0.61571023      -0.03454714      -0.21175947      -0.24968118
F       -0.06869623      -6.18881440      -1.89474565       0.03455460       0.21181063       0.24969872
Al       0.28086858       5.03521161       2.52562869       0.27752572      -0.49805501      -0.27614910
F       -0.44207409       6.33198867       3.24459395      -0.27753312       0.49800390       0.27613156
4
Properties=species:S:1:pos:R:3:forces:R:3 energy=-18604.063069629363 pbc="F F F"
Al       0.11643652      -5.05453407      -0.69696777       0.13820442       0.83572486       0.77241812
F       -0.08051077      -6.24472536      -1.79714801      -0.13820364      -0.83563492      -0.77238932
Al       0.28260666       5.02594600       2.56457899       0.60343873      -1.08313097      -0.53321932
F       -0.44467629       6.33112376       3.20708106      -0.60343950       1.08304104       0.53319053
4
Properties=species:S:1:pos:R:3:forces:R:3 energy=-18604.023460066735 pbc="F F F"
Al       0.13933947      -4.91927035      -0.81872189      -0.17771338      -1.04985498      -0.59171249
F       -0.11277876      -6.40967833      -1.65868712       0.17770299       1.04985601       0.59171229
Al       0.31117344       4.96277375       2.61748054      -0.54479880       0.97845673       0.37532216
F       -0.48550562       6.39369240       3.16640461       0.54480919      -0.97845776      -0.37532190
4
Properties=species:S:1:pos:R:3:forces:R:3 energy=-18604.069395773473 pbc="F F F"
Al      -0.06438114      -5.97585108      -1.70143533       0.01800528       0.10679191       0.05998780
F        0.18007280      -4.53018317      -0.88492959      -0.01798708      -0.10643561      -0.05972987
Al       0.19823601       5.00118935       3.53490396       0.53656932      -0.97721113       1.21304502
F       -0.32863934       5.96019568       2.34335195      -0.53658752       0.97685488      -1.21330295
4
Properties=species:S:1:pos:R:3:forces:R:3 energy=-18604.106486672114 pbc="F F F"
Al      -0.07008732      -5.99956275      -1.63951811      -0.01396850      -0.08140879      -0.03546935
F        0.18829392      -4.48365539      -0.98895156       0.01400742       0.08172869       0.03581552
Al       0.19362618       5.00385212       3.57272609       0.11097535      -0.20299622       0.27183849
F       -0.32220965       5.94356155       2.30572407      -0.11101428       0.20267632      -0.27218461
4
Properties=species:S:1:pos:R:3:forces:R:3 energy=-18604.052937953104 pbc="F F F"
Al      -0.06372761      -5.86964228      -0.99095124       0.18772310       1.02604440      -0.83431003
F        0.18056201      -4.53586638      -2.07483736      -0.18767409      -1.02643372       0.83437544
Al       0.08234709       5.14677060       3.77490652      -0.00930271       0.01695746      -0.06206037
F       -0.16547120       5.60828659       2.18337826       0.00925371      -0.01656814       0.06199496
4
Properties=species:S:1:pos:R:3:forces:R:3 energy=-18603.981094817962 pbc="F F F"
Al       0.13454563      -4.64590464      -1.11786230      -0.25114527      -1.51376878      -1.13688282
F       -0.09863430      -6.05130043      -2.17300292       0.25118646       1.51418910       1.13685099
Al      -0.13865805       5.45022708       3.89336672       0.10064049      -0.17399757      -0.56529019
F        0.14600894       4.95479904       2.29354576      -0.10068173       0.17357719       0.56532207
4
Properties=species:S:1:pos:R:3:forces:R:3 energy=-18604.002409426048 pbc="F F F"
Al       0.13139009      -4.65551526      -2.05314313       0.32637360       1.78121340      -1.47084945
F       -0.09222040      -5.87635232      -1.04505921      -0.32631302      -1.78080172       1.47098253
Al      -0.27573351       5.63465414       3.79895198       0.38424049      -0.68926838      -0.73176224
F        0.33875117       4.53157656       2.62797602      -0.38430107       0.68885664       0.73162911
4
Properties=species:S:1:pos:R:3:forces:R:3 energy=-18603.93554712333 pbc="F F F"
Al       0.11828524      -4.73023152      -2.26544606      -0.23893325      -1.25566044       1.85043800
F       -0.07314830      -5.73556466      -0.78620907       0.23896894       1.25604642      -1.84990470
Al      -0.28874134       5.64516114       3.75162204      -0.00703464       0.01272398       0.01212203
F        0.35676430       4.48197892       2.73785658       0.00699895      -0.01310990      -0.01265533
4
Properties=species:S:1:pos:R:3:forces:R:3 energy=-18603.82418467098 pbc="F F F"
Al       0.11234655      -4.76312905      -2.31048346      -0.25081535      -1.29887591       2.23877133
F       -0.06457866      -5.67873001      -0.73466324       0.25083438       1.29915611      -2.23824040
Al      -0.28666611       5.63767845       3.72766419      -0.57788829       1.04238310       0.85244356
F        0.35368155       4.48249227       2.78429782       0.57786931      -1.04266330      -0.85297449
4
Properties=species:S:1:pos:R:3:forces:R:3 energy=-18604.051410880595 pbc="F F F"
Al       0.04024634      -5.15304953      -2.40862256      -0.00034062       0.06835448       1.09852715
F        0.03882922      -5.04863661      -0.68878980       0.00021659      -0.06878344      -1.09822798