4
Properties=species:S:1:pos:R:3:forces:R:3 energy=-18604.08918632666 pbc="F F F"
Al       0.02316606      -6.99833769       0.00066911      -0.00270331       0.00250035       0.22907775
F        0.00330594      -6.97817564       1.68293568       0.00270424      -0.00240105      -0.22915056
Al      -0.00832890       7.01169065       1.65842322      -0.01655513       0.00461035       1.06232139
F        0.01715651       7.00500937       0.02313597       0.01655420      -0.00470964      -1.06224857
4
Properties=species:S:1:pos:R:3:forces:R:3 energy=-18603.98417490487 pbc="F F F"
Al       0.00275320      -7.10736020      -0.01589890       0.01885514       0.19191800       1.06662290
F        0.03266029      -6.80217900       1.67905194      -0.01885514      -0.19170069      -1.06667514
Al      -0.03504422       7.04958148       1.71829135       0.08736578      -0.11621953      -1.70500554
F        0.05473363       6.93003398      -0.03447514      -0.08736583       0.11600222       1.70505773
4
Properties=species:S:1:pos:R:3:forces:R:3 energy=-18603.95828996844 pbc="F F F"
Al      -0.10637093      -7.62359091       0.54233748       0.23794024       1.36952870       0.11734187
F        0.19022056      -5.91592858       0.68919785      -0.23798395      -1.36961832      -0.11714944
Al      -0.16915177       7.22943042       1.63907300      -0.68260393       1.17256804       2.26154020
F        0.24261106       6.52151306       0.27507739       0.68264764      -1.17247841      -2.26173262
4
Properties=species:S:1:pos:R:3:forces:R:3 energy=-18604.00027394687 pbc="F F F"
Al      -0.09750204      -7.53620135       0.76034984      -0.21317285      -1.19324048       0.34112371
F        0.17839127      -5.99253392       0.31866049       0.21311747       1.19294038      -0.34098286
Al      -0.22773602       7.31402782       1.66332214       0.52302027      -0.90937607      -1.28840838
F        0.32504613       6.35386247       0.30155489      -0.52296489       0.90967616       1.28826753
4
Properties=species:S:1:pos:R:3:forces:R:3 energy=-18603.910879256415 pbc="F F F"
Al       0.03580522      -6.66620466       1.20586852      -0.05279966      -0.46256026      -2.11189278
F       -0.00821519      -7.05026730      -0.54340004       0.05284384       0.46270316       2.11167454
Al      -0.33088131       7.42724277       1.44048927       0.54823123      -0.96746428      -0.40717078
F        0.46881654       6.01523835       0.84735695      -0.54827545       0.96732133       0.40738901
4
Properties=species:S:1:pos:R:3:forces:R:3 energy=-18603.9501770085 pbc="F F F"
Al       0.06115545      -6.52127688       1.05088568       0.20005478       1.34533364       2.69078431
F       -0.04376976      -7.22704427      -0.36090937      -0.20002953      -1.34521840      -2.69081105
Al      -0.31770456       7.39268155       1.38513333      -0.82228745       1.45489205       0.45164192
F        0.44965509       6.03527270       0.96358949       0.82226220      -1.45500734      -0.45161523
4
Properties=species:S:1:pos:R:3:forces:R:3 energy=-18603.94443342403 pbc="F F F"
Al       0.06496716      -6.49876392       1.04173444       0.19107880       1.26699618       2.33406526
F       -0.04912823      -7.25548540      -0.35248462      -0.19105319      -1.26688212      -2.33408840
Al      -0.31562300       7.38764134       1.37786245      -1.09227454       1.93297828       0.57220543
F        0.44664394       6.03889901       0.97848743       1.09224898      -1.93309234      -0.57218224
4
Properties=species:S:1:pos:R:3:forces:R:3 energy=-18604.06301749357 pbc="F F F"
Al       0.13388150      -6.10197020       0.47362853       0.18323379       1.05199306       0.10970281
F       -0.14514057      -7.70454598       0.30653435      -0.18319353      -1.05188800      -0.10968430
Al      -0.34675844       7.39933449       1.20449376       0.48556506      -0.86610805       0.09764351
F        0.48900265       5.90782641       1.37251094      -0.48560532       0.86600299      -0.09766202
4
Properties=species:S:1:pos:R:3:forces:R:3 energy=-18603.934806695037 pbc="F F F"
Al       0.13931050      -6.07388940       0.29545620      -0.05151802      -0.29067594       0.04064678
F       -0.15239430      -7.71790029       0.52544146       0.05155530       0.29078546      -0.04062739
Al      -0.31181056       7.32713085       1.16904089      -1.79025351       3.20380715      -0.68664169
F        0.43891315       5.98384399       1.45699440       1.79021623      -3.20391673       0.68662225
4
Properties=species:S:1:pos:R:3:forces:R:3 energy=-18603.970573769246 pbc="F F F"
Al       0.14100071      -6.06475348       0.26476470      -0.15782924      -0.88721228       0.15934264
F       -0.15471588      -7.72630752       0.56315308       0.15787480       0.88734999      -0.15931251
Al      -0.31422499       7.32977982       1.16003498      -1.41800310       2.53906530      -0.59156162
F        0.44226326       5.97551430       1.47566107       1.41795748      -2.53920301       0.59153154
4
Properties=species:S:1:pos:R:3:forces:R:3 energy=-18604.054805384047 pbc="F F F"
Al       0.01094982      -6.77921495      -0.36912515      -0.02421702      -0.27561374      -1.73575486
F        0.03334065      -6.52562050       1.22508620       0.02420483       0.27548221       1.73582896
Al      -0.23982155       7.12833640       0.92426665      -0.28351428       0.52068535      -0.55596449
F        0.33323724       6.07559571       2.04881679       0.28352647      -0.52055381       0.55589034
4
Properties=species:S:1:pos:R:3:forces:R:3 energy=-18604.066217603806 pbc="F F F"
Al      -0.01733744      -6.93111578      -0.38418028       0.06120635       0.43290151       1.06731920
F        0.07399347      -6.28376402       1.21305226      -0.06124270      -0.43317389      -1.06731848
Al      -0.22044529       7.08426987       0.89110869      -0.11063982       0.20404436      -0.26013246
F        0.30523984       6.11205213       2.12932299       0.11067618      -0.20377197       0.26013174
4
Properties=species:S:1:pos:R:3:forces:R:3 energy=-18603.678820983943 pbc="F F F"
Al      -0.03739080      -7.03355465      -0.34638938       0.11995688       0.78331276       1.26115556
F        0.10287465      -6.11620582       1.13110940      -0.12002296      -0.78383048      -1.26124056
Al      -0.23055770       7.09568834       0.80945688       0.86115790      -1.60173075       2.29392648
F        0.31920009       6.07376115       2.27355711      -0.86109177       1.60224846      -2.29384153
4
Properties=species:S:1:pos:R:3:forces:R:3 energy=-18604.046809458185 pbc="F F F"
Al      -0.04990884      -7.09008128      -0.25642966      -0.07885415      -0.49593755      -0.57064096
F        0.12099783      -6.01674369       0.97873074       0.07880915       0.49565031       0.57052609
Al      -0.20053996       7.03343055       0.84145983       0.36471764      -0.68196696       1.07978514
F        0.27622383       6.14299667       2.25272434      -0.36467265       0.68225426      -1.07967027
4
Properties=species:S:1:pos:R:3:forces:R:3 energy=-18603.944319521575 pbc="F F F"
Al      -0.07754922      -7.22766592      -0.16088499       0.20812470       1.25442225       0.84148243
F        0.16080416      -5.79008987       0.80280652      -0.20818975      -1.25472466      -0.84177482
Al      -0.17347541       6.97312787       0.81059886       0.40589736      -0.76801115       1.50810582
F        0.23723530       6.19738249       2.33678475      -0.40583231       0.76831361      -1.50781343
4
Properties=species:S:1:pos:R:3:forces:R:3 energy=-18604.053362114802 pbc="F F F"
Al      -0.09439565      -7.25175291       0.30024514      -0.20585266      -1.16281507       0.19652295
F        0.18623377      -5.66721242       0.03321116       0.20582788       1.16296548      -0.19671234
Al      -0.08668713       6.78086479       0.80115348       0.12581417      -0.25286930       1.04974031
F        0.11247425       6.38176550       2.46489728      -0.12578938       0.25271889      -1.04955097
4
Properties=species:S:1:pos:R:3:forces:R:3 energy=-18603.945354850894 pbc="F F F"
Al      -0.09708764      -7.25531114       0.38093715       0.11240766       0.62821820      -0.18746593
F        0.19028342      -5.64830350      -0.09934297      -0.11242386      -0.62804033       0.18737826
Al      -0.06554915       6.73549961       0.86187175      -0.32612579       0.66858509      -3.38812318
F        0.08222760       6.43233761       2.39662049       0.32614194      -0.66876296       3.38821085
4
Properties=species:S:1:pos:R:3:forces:R:3 energy=-18603.84168430841 pbc="F F F"
Al      -0.09205812      -7.21338423       0.46300330       0.09676198       0.53418174      -0.24522459
F        0.18341457      -5.69090304      -0.23783360      -0.09678713      -0.53385578       0.24503330
Al      -0.05752439       6.71636458       0.75876825       0.18224870      -0.39039407       2.56733628
F        0.07055676       6.44256812       2.56498837      -0.18222350       0.39006811      -2.56714499
4
Properties=species:S:1:pos:R:3:forces:R:3 energy=-18604.055143350633 pbc="F F F"
Al       0.14551638      -5.75609847      -0.05441702      -0.10567158      -0.59881732       0.04345756
F       -0.14878009      -7.42495461       0.06639908       0.10565682       0.59876554      -0.04344126
Al       0.25649506       6.00016912       1.20943457      -0.43360074       0.76509099       0.78002581
F       -0.38062249       7.12412300       2.35555976       0.43361550      -0.76503921      -0.78004211
4
Properties=species:S:1:pos:R:3:forces:R:3 energy=-18604.033903858133 pbc="F F F"
Al       0.11795263      -5.91270217      -0.46467193       0.29469735       1.58452611      -1.32884525
F       -0.10854170      -7.13036010       0.55652443      -0.29469560      -1.58452873       1.32883769
Al       0.28261193       5.91941524       1.39214507       0.42506031      -0.75591097      -0.48260376
F       -0.41880602       7.16662381       2.18859303      -0.42506206       0.75591359       0.48261137
4
Properties=species:S:1:pos:R:3:forces:R:3 energy=-18604.017807497763 pbc="F F F"
Al      -0.06729620      -6.75756241       0.27147983       0.22099317       1.17707657      -1.21820245
F        0.16031212      -5.54517713      -0.98225271      -0.22097569      -1.17698370       1.21840474
Al       0.24961255       5.79916399       2.35096793       0.04037290      -0.07465415       0.06577330
F       -0.37770366       6.95209249       1.32016666      -0.04039044       0.07456128      -0.06597559
4
Properties=species:S:1:pos:R:3:forces:R:3 energy=-18603.84435827814 pbc="F F F"
Al      -0.05567596      -6.67649912       0.35381028       0.27228288       1.41453303      -2.01932205
F        0.14412537      -5.63858217      -1.12668358      -0.27225568      -1.41453874       2.01958302
Al       0.24408574       5.79883635       2.41184125      -0.41751453       0.76890702      -0.78297996
F       -0.37017082       6.93083673       1.26121948       0.41748728      -0.76890126       0.78271894
4
Properties=species:S:1:pos:R:3:forces:R:3 energy=-18604.104705822658 pbc="F F F"
Al       0.14681503      -5.46085027      -0.49636158       0.05581022       0.31609463      -0.04268062
F       -0.13931200      -7.08215823      -0.27775162      -0.05580575      -0.31604655       0.04262103
Al      -0.02112553       6.15222394       2.77754053       0.00147787       0.00006351      -0.10547802
F        0.00234193       6.14606672       1.10033565      -0.00148234      -0.00011159       0.10553757
4
Properties=species:S:1:pos:R:3:forces:R:3 energy=-18604.102655372415 pbc="F F F"
Al       0.12731180      -5.57076113      -0.85719145       0.06117092       0.33148526      -0.25995418
F       -0.11068883      -6.86218944       0.15364961      -0.06115282      -0.33136185       0.25984100
Al      -0.08568592       6.24260638       2.79895653       0.02464361      -0.03922666      -0.22711533
F        0.09310594       5.95383219       1.15097010      -0.02466177       0.03910324       0.22722846
4
Properties=species:S:1:pos:R:3:forces:R:3 energy=-18604.051576951606 pbc="F F F"
Al       0.02370864      -6.13492540      -1.21705494       0.01053628       0.14422897       1.20851978
F        0.03836367      -5.93113214       0.50037692      -0.01054749      -0.14399783      -1.20829203
Al      -0.20033592       6.39942499       2.74635684      -0.27281767       0.47892559       0.81513181
F        0.25401664       5.60128735       1.39002314       0.27282888      -0.47915673      -0.81535956
4
Properties=species:S:1:pos:R:3:forces:R:3 energy=-18604.064289737868 pbc="F F F"
Al      -0.01573901      -6.34143630      -1.17110541       0.07714596       0.51679635       1.07999099
F        0.09496349      -5.59852158       0.38562840      -0.07720309      -0.51681502      -1.07962126
Al      -0.23576474       6.44824286       2.73019346       0.02922589      -0.05274310      -0.06793256
F        0.30375641       5.49263248       1.46246937      -0.02916876       0.05276182       0.06756284
4
Properties=species:S:1:pos:R:3:forces:R:3 energy=-18604.100762209895 pbc="F F F"
Al       0.14921523      -5.15659606      -0.66536657      -0.04554545      -0.26281027      -0.04733874
F       -0.13418186      -6.79056565      -0.95976345       0.04558741       0.26292185       0.04744308
Al      -0.28209302       6.33168468       2.06047729      -0.20532060       0.37031406      -0.31114223
F        0.36442914       5.16750200       3.04074188       0.20527869      -0.37042565       0.31103789
4
Properties=species:S:1:pos:R:3:forces:R:3 energy=-18604.051597841975 pbc="F F F"
Al       0.06554066      -5.61292161      -1.58846695      -0.06161917      -0.26879873       1.33251180
F       -0.01331949      -5.95606588       0.11283734       0.06160641       0.26855905      -1.33262709
Al      -0.13419868       5.99130548       1.92161675      -0.02945147       0.05359100      -0.15900073
F        0.15236183       5.46448259       3.47633833       0.02946418      -0.05335132       0.15911602
4
Properties=species:S:1:pos:R:3:forces:R:3 energy=-18604.01307476123 pbc="F F F"
Al      -0.08649226      -6.32642486      -0.79272432       0.26379032       1.47912671      -0.49674036
F        0.20528161      -4.68956554      -1.34195328      -0.26383444      -1.47872741       0.49702477
Al       0.11869970       5.42970349       2.04751967      -0.15836958       0.27976170       0.76001887
F       -0.20948843       6.00888714       3.62220764       0.15841370      -0.28016100      -0.76030329
4
Properties=species:S:1:pos:R:3:forces:R:3 energy=-18604.05657911098 pbc="F F F"
Al      -0.08233507      -6.02287374      -1.31065820       0.02547614       0.14519730      -0.02084856
F        0.20631561      -4.38448049      -1.53838286      -0.02542610      -0.14521792       0.02116825
Al       0.13553477       5.08006734       3.66443729       0.44027893      -0.80815183       1.64614507
F       -0.24033566       5.76925206       2.25786015      -0.44032896       0.80817250      -1.64646476
4
Properties=species:S:1:pos:R:3:forces:R:3 energy=-18603.95279161986 pbc="F F F"
Al       0.08827148      -4.89350366      -2.37115522      -0.13706670      -0.66241423       1.96323333
F       -0.02999561      -5.46435174      -0.68433764       0.13703708       0.66243614      -1.96271813
Al      -0.30526243       5.66047173       3.69219793      -0.42007854       0.75963017       0.50489986
F        0.37970042       4.42090105       2.87050749       0.42010811      -0.75965208      -0.50541510
4
Properties=species:S:1:pos:R:3:forces:R:3 energy=-18604.016449998617 pbc="F F F"
Al       0.00106273      -5.35581746      -2.32713704      -0.12257231      -0.83596063      -1.92580650
F        0.09498726      -4.71706118      -0.85802788       0.12239146       0.83526869       1.92581082
Al      -0.35263102       5.71140559       3.58273814       0.46015453      -0.83911923      -0.25668996
F        0.44584435       4.25785241       3.13713791      -0.45997363       0.83981116       0.25668564
4
Properties=species:S:1:pos:R:3:forces:R:3 energy=-18604.0288149158 pbc="F F F"
Al      -0.04250869      -5.57418279      -2.17189465      -0.24798492      -1.52213437      -1.26995799
F        0.15734938      -4.34939569      -1.15003995       0.24774365       1.52141066       1.26949812
Al      -0.36161032       5.70366580       3.49271341       0.40390810      -0.73700719      -0.07761354
F        0.45811477       4.21130149       3.33652785      -0.40366683       0.73773085       0.07807340
4
Properties=species:S:1:pos:R:3:forces:R:3 energy=-18603.9221094148 pbc="F F F"
Al      -0.06512680      -5.69402696      -2.12959116       0.31410208       1.89149070       1.09973670
F        0.18957500      -4.15795954      -1.23692741      -0.31443591      -1.89224121      -1.10047204
Al      -0.34792896       5.66935358       3.45618592      -0.54424067       0.98748433       0.02697036
F        0.43858112       4.23879830       3.41521221       0.54457450      -0.98673388      -0.02623502
4
Properties=species:S:1:pos:R:3:forces:R:3 energy=-18604.0921655944 pbc="F F F"
Al      -0.06516565      -5.60952056      -1.52223719      -0.14393520      -0.81985107       0.41241012
F        0.18979055      -4.16156491      -2.24834352       0.14387411       0.82019591      -0.41258717
Al      -0.34308533       5.60707246       3.27878700       0.12999005      -0.23427560       0.08890937
F        0.43154182       4.21083932       3.81600602      -0.12992901       0.23393076      -0.08873232
4
Properties=species:S:1:pos:R:3:forces:R:3 energy=-18603.931526246914 pbc="F F F"
Al      -0.06710208      -5.60847246      -1.41955628       0.30750196       1.72878789      -1.17623042
F        0.19252913      -4.14662285      -2.41523186      -0.30754844      -1.72833640       1.17614002
Al      -0.32599409       5.56857326       3.26242153      -0.65230754       1.17404802      -0.53331260
F        0.40728039       4.24908531       3.86030915       0.65235397      -1.17449945       0.53340300
4
Properties=species:S:1:pos:R:3:forces:R:3 energy=-18603.950948680907 pbc="F F F"
Al       0.08202235      -4.66013536      -1.23465066      -0.12130347      -0.79532866      -1.98819874
F       -0.01932519      -5.32356204      -2.89428871       0.12137495       0.79526937       1.98845169
Al      -0.23638354       5.32960264       3.05381441       0.08367095      -0.14645833       0.21423297
F        0.28008319       4.41858200       4.37302688      -0.08374238       0.14651762      -0.21448592
4
Properties=species:S:1:pos:R:3:forces:R:3 energy=-18604.105581757307 pbc="F F F"
Al       0.07760318      -4.62359103      -2.73955351       0.01522695       0.07502675      -0.27018908
F       -0.01266166      -5.07189907      -1.14131046      -0.01520869      -0.07483063       0.27005486
Al       0.05224665       4.68342912       3.08937490       0.02349649      -0.04581768      -0.20849375
F       -0.13021691       5.03271459       4.70680913      -0.02351475       0.04562156       0.20862802
4
Properties=species:S:1:pos:R:3:forces:R:3 energy=-18603.802117006126 pbc="F F F"
Al       0.05032819      -4.77252917      -2.84579819      -0.03257866      -0.07594505       2.43687520
F        0.02612920      -4.82795167      -1.03151918       0.03261023       0.07643618      -2.43710372
Al       0.08760957       4.60598205       3.08653131      -0.26452622       0.49613913       1.64319565
F       -0.18049425       5.11027956       4.75194505       0.26449465      -0.49663021      -1.64296713
4
Properties=species:S:1:pos:R:3:forces:R:3 energy=-18603.942336282154 pbc="F F F"
Al      -0.04025521      -5.24885289      -2.68768523       0.22432373       1.37071701       1.50531190
F        0.15494423      -4.05534935      -1.37756256      -0.22437865      -1.37011172      -1.50501180
Al       0.17355708       4.41227361       3.24651001      -0.27989828       0.51552324       0.82287021
F       -0.30272540       5.28925713       4.64623455       0.27995320      -0.51612853      -0.82317036
4
Properties=species:S:1:pos:R:3:forces:R:3 energy=-18603.959289123242 pbc="F F F"
Al      -0.07908814      -5.42833990      -2.35805148       0.31595168       1.85519459       0.46112528
F        0.21017913      -3.72905243      -1.93531419      -0.31605663      -1.85478121      -0.46071390
Al       0.22991657       4.28242790       3.38610930      -0.35988628       0.65846307       0.67669692
F       -0.38285152       5.40227464       4.53758126       0.35999124      -0.65887645      -0.67710830
4
Properties=species:S:1:pos:R:3:forces:R:3 energy=-18604.075395466425 pbc="F F F"
Al       0.01570501      -4.75726278      -1.61133373      -0.00965629      -0.04501328       0.26205745
F        0.07535575      -4.47750557      -3.24936801       0.00966519       0.04494320      -0.26201801
Al       0.31941305       4.04416332       3.88182625      -0.49489631       0.89040400       0.12220573
F       -0.50975634       5.53604726       4.08712891       0.49488741      -0.89033391      -0.12224517
4
Properties=species:S:1:pos:R:3:forces:R:3 energy=-18604.081008629473 pbc="F F F"
Al       0.13083027      -4.04143410      -1.91521358      -0.11117549      -0.66705220      -0.54230684
F       -0.08831553      -5.35837853      -2.98546182       0.11113892       0.66713308       0.54230679
Al       0.30300164       4.02258352       4.23557806      -0.13923440       0.24861016      -0.08510512
F       -0.48627849       5.43094775       3.75239454       0.13927096      -0.24869105       0.08510517
4
Properties=species:S:1:pos:R:3:forces:R:3 energy=-18604.08844051435 pbc="F F F"
Al       0.13214964      -4.03306323      -1.93761682      -0.06572619      -0.39317811      -0.30104777
F       -0.09019472      -5.36662938      -2.95813580       0.06568886       0.39327093       0.30105908
Al       0.30422857       4.01903214       4.24596552      -0.26184250       0.46728400      -0.16638664
F       -0.48801556       5.43235394       3.74213334       0.26187984      -0.46737681       0.16637533
4
Properties=species:S:1:pos:R:3:forces:R:3 energy=-18604.036648668764 pbc="F F F"
Al      -0.07871934      -5.04929430      -2.39683676       0.22395637       1.27224056      -0.40964207
F        0.20853977      -3.41936946      -2.92327566      -0.22388602      -1.27279798       0.40890108
Al      -0.09562217       4.53327058       4.97874047       0.07185000      -0.13650039      -0.67615997
F        0.08059430       4.19802413       3.31877027      -0.07192034       0.13705781       0.67690096
4
Properties=species:S:1:pos:R:3:forces:R:3 energy=-18604.10011074069 pbc="F F F"
Al      -0.02092896      -4.65952177      -2.06221702      -0.04422833      -0.23323168       0.43778125
F        0.12662628      -3.87997194      -3.51399275       0.04428782       0.23363971      -0.43792827
Al      -0.18084515       4.64320682       4.93925836      -0.13472227       0.24562259       0.51068926
F        0.20146759       3.94894005       3.49033281       0.13466277      -0.24603063      -0.51054230
4
Properties=species:S:1:pos:R:3:forces:R:3 energy=-18604.043695760072 pbc="F F F"
Al       0.14671105      -3.61144623      -3.22887453      -0.21425138      -1.19398358       0.81186692
F       -0.10980550      -5.03838588      -2.26090773       0.21429596       1.19386387      -0.81143518
Al      -0.35919417       4.82111831       4.57872784       0.02486519      -0.04467210      -0.00414626
F        0.45310830       3.36620680       4.40616072      -0.02490972       0.04479181       0.00371458
4
Properties=species:S:1:pos:R:3:forces:R:3 energy=-18603.923642241454 pbc="F F F"
Al       0.13698262      -3.66386173      -3.35860789      -0.29490160      -1.61776343       1.59053246
F       -0.09578686      -4.93863073      -2.10708762       0.29489023       1.61743196      -1.59024450
Al      -0.35639320       4.80566060       4.53925047      -0.26261327       0.46981772       0.01633736
F        0.44892805       3.36284521       4.49265375       0.26262463      -0.46948625      -0.01662532
4
Properties=species:S:1:pos:R:3:forces:R:3 energy=-18604.014428651142 pbc="F F F"
Al       0.10235734      -3.85298321      -3.43018611       0.22833995       1.19935667      -2.11784601
F       -0.04633552      -4.63526661      -2.04724284      -0.22839440      -1.19966032       2.11792453
Al      -0.36516531       4.80695299       4.48676494       0.30725354      -0.55130010       0.04602460
F        0.46110969       3.32623602       4.60900436      -0.30719908       0.55160379      -0.04610307
4
Properties=species:S:1:pos:R:3:forces:R:3 energy=-18604.008345793067 pbc="F F F"
Al       0.08806617      -3.93308352      -3.55787198      -0.11296359      -0.56364880       1.66105978
F       -0.02586564      -4.49872915      -1.89333441       0.11280320       0.56316301      -1.66128213
Al      -0.35416638       4.77770181       4.45478692      -0.21369288       0.38125863      -0.06035933
F        0.44531545       3.34499957       4.68185064       0.21385327      -0.38077285       0.06058167
4
Properties=species:S:1:pos:R:3:forces:R:3 energy=-18603.97663422152 pbc="F F F"
Al       0.08576229      -3.94580189      -3.57084987      -0.11984211      -0.59101999       1.88327731
F       -0.02257074      -4.47749008      -1.87873505       0.11966913       0.59052685      -1.88353797
Al      -0.35293424       4.77415164       4.45021368      -0.26775357       0.47801666      -0.08106622
F        0.44354264       3.34686511       4.69217740       0.26792661      -0.47752352       0.08132688
4
Properties=species:S:1:pos:R:3:forces:R:3 energy=-18603.954102297575 pbc="F F F"
Al       0.08317311      -3.95999197      -3.58168829      -0.11982206      -0.58295048       2.02521985
F       -0.01886991      -4.45401055      -1.86735735       0.11963771       0.58245487      -2.02551610
Al      -0.35203551       4.77113231       4.44530376      -0.29599730       0.52852264      -0.09588035
F        0.44224258       3.34782637       4.70316549       0.29618159      -0.52802703       0.09617659
4
Properties=species:S:1:pos:R:3:forces:R:3 energy=-18603.94383864139 pbc="F F F"
Al       0.08013038      -3.97655668      -3.59062034      -0.11389222      -0.54461677       2.09663251
F       -0.01452286      -4.42680869      -1.85911123       0.11369753       0.54412327      -2.09696305
Al      -0.35148769       4.76859035       4.43973155      -0.29376902       0.52443494      -0.10202580
F        0.44143880       3.34775981       4.71551833       0.29396366      -0.52394145       0.10235634
4
Properties=species:S:1:pos:R:3:forces:R:3 energy=-18603.94861034917 pbc="F F F"
Al       0.07687864      -3.99415062      -3.59666307      -0.10343780      -0.48441541       2.09079831
F       -0.00987897      -4.39809187      -1.85503470       0.10323479       0.48392824      -2.09115847
Al      -0.35135509       4.76676656       4.43393009      -0.25960647       0.46314961      -0.09632119
F        0.44122473       3.34662006       4.72826292       0.25980948      -0.46266239       0.09668135
4
Properties=species:S:1:pos:R:3:forces:R:3 energy=-18603.996003300486 pbc="F F F"
Al       0.06969992      -4.03267007      -3.60042670      -0.07235861      -0.31884078       1.83481788
F        0.00036853      -4.33563777      -1.85905513       0.07214516       0.31837875      -1.83522303
Al      -0.35209704       4.76479079       4.42148876      -0.11575812       0.20535670      -0.04867819
F        0.44222616       3.34167729       4.75529765       0.11597157      -0.20489467       0.04908334
4
Properties=species:S:1:pos:R:3:forces:R:3 energy=-18604.097068678835 pbc="F F F"
Al       0.01873740      -4.30606911      -3.58488960       0.01623863       0.11811839       0.47585986
F        0.07304592      -3.89673884      -1.94247359      -0.01649229      -0.11823574      -0.47641625
Al      -0.34042131       4.72200846       4.35013869      -0.04376522       0.07626592      -0.03338922
F        0.42534388       3.35181924       4.91798171       0.04401893      -0.07614857       0.03394561
4
Properties=species:S:1:pos:R:3:forces:R:3 energy=-18604.032495027455 pbc="F F F"
Al      -0.06300170      -4.72220069      -3.30127408       0.22834550       1.37358014       0.74770365
F        0.18943656      -3.20013161      -2.47381568      -0.22855427      -1.37297176      -0.74775538
Al      -0.29218821       4.58833928       4.21478132      -0.00624963       0.01006242      -0.01202942
F        0.35653846       3.43603925       5.23876752       0.00645846      -0.01067080       0.01208115
4
Properties=species:S:1:pos:R:3:forces:R:3 energy=-18604.00164355541 pbc="F F F"
Al      -0.08119068      -4.78882690      -3.00220141       0.30711115       1.80179884       0.03427538
F        0.21524972      -3.04715742      -2.96919615      -0.30720309      -1.80132637      -0.03389100
Al      -0.25183009       4.48963553       4.16230545      -0.15816348       0.27912114      -0.35211610
F        0.29924069       3.51786671       5.38393113       0.15825542      -0.27959355       0.35173172
4
Properties=species:S:1:pos:R:3:forces:R:3 energy=-18604.0409453384 pbc="F F F"
Al       0.11946495      -3.46771298      -2.60663562      -0.14520044      -0.88721758      -0.97662759
F       -0.07027923      -4.62751335      -3.88348533       0.14519432       0.88725491       0.97668123
Al       0.01334803       3.88820142       4.11447379      -0.03664974       0.07633092       0.68663063
F       -0.07680760       4.07613315       5.80436819       0.03665586      -0.07636825      -0.68668427
4
Properties=species:S:1:pos:R:3:forces:R:3 energy=-18604.065379177762 pbc="F F F"
Al       0.12634032      -3.42406692      -2.70167652       0.05879795       0.35644137       0.30431770
F       -0.08007512      -4.67342093      -3.76761843      -0.05881065      -0.35636511      -0.30420858